+ 2 /NodeList/1/DeviceList/0/$ns3::PointToPointNetDevice/TxQueue/Enqueue ns3::PppHeader (Point-to-Point Protocol: IP (0x0021)) ns3::Ipv4Header (tos 0x0 DSCP Default ECN Not-ECT ttl 64 id 0 protocol 17 offset (bytes) 0 flags [none] length: 540 10.1.1.2 > 10.1.2.6) ns3::UdpHeader (length: 520 49153 > 9) Payload (size=512)
- 2 /NodeList/1/DeviceList/0/$ns3::PointToPointNetDevice/TxQueue/Dequeue ns3::PppHeader (Point-to-Point Protocol: IP (0x0021)) ns3::Ipv4Header (tos 0x0 DSCP Default ECN Not-ECT ttl 64 id 0 protocol 17 offset (bytes) 0 flags [none] length: 540 10.1.1.2 > 10.1.2.6) ns3::UdpHeader (length: 520 49153 > 9) Payload (size=512)
r 2.00287 /NodeList/0/DeviceList/0/$ns3::PointToPointNetDevice/MacRx ns3::PppHeader (Point-to-Point Protocol: IP (0x0021)) ns3::Ipv4Header (tos 0x0 DSCP Default ECN Not-ECT ttl 64 id 0 protocol 17 offset (bytes) 0 flags [none] length: 540 10.1.1.2 > 10.1.2.6) ns3::UdpHeader (length: 520 49153 > 9) Payload (size=512)
+ 2.01949 /NodeList/0/DeviceList/0/$ns3::PointToPointNetDevice/TxQueue/Enqueue ns3::PppHeader (Point-to-Point Protocol: IP (0x0021)) ns3::Ipv4Header (tos 0x0 DSCP Default ECN Not-ECT ttl 63 id 0 protocol 17 offset (bytes) 0 flags [none] length: 540 10.1.2.6 > 10.1.1.2) ns3::UdpHeader (length: 520 9 > 49153) Payload (size=512)
- 2.01949 /NodeList/0/DeviceList/0/$ns3::PointToPointNetDevice/TxQueue/Dequeue ns3::PppHeader (Point-to-Point Protocol: IP (0x0021)) ns3::Ipv4Header (tos 0x0 DSCP Default ECN Not-ECT ttl 63 id 0 protocol 17 offset (bytes) 0 flags [none] length: 540 10.1.2.6 > 10.1.1.2) ns3::UdpHeader (length: 520 9 > 49153) Payload (size=512)
r 2.02235 /NodeList/1/DeviceList/0/$ns3::PointToPointNetDevice/MacRx ns3::PppHeader (Point-to-Point Protocol: IP (0x0021)) ns3::Ipv4Header (tos 0x0 DSCP Default ECN Not-ECT ttl 63 id 0 protocol 17 offset (bytes) 0 flags [none] length: 540 10.1.2.6 > 10.1.1.2) ns3::UdpHeader (length: 520 9 > 49153) Payload (size=512)
+ 3.00637 /NodeList/1/DeviceList/0/$ns3::PointToPointNetDevice/TxQueue/Enqueue ns3::PppHeader (Point-to-Point Protocol: IP (0x0021)) ns3::Ipv4Header (tos 0x0 DSCP Default ECN Not-ECT ttl 63 id 0 protocol 17 offset (bytes) 0 flags [none] length: 540 10.1.3.1 > 10.1.2.6) ns3::UdpHeader (length: 520 49153 > 9) Payload (size=512)
- 3.00637 /NodeList/1/DeviceList/0/$ns3::PointToPointNetDevice/TxQueue/Dequeue ns3::PppHeader (Point-to-Point Protocol: IP (0x0021)) ns3::Ipv4Header (tos 0x0 DSCP Default ECN Not-ECT ttl 63 id 0 protocol 17 offset (bytes) 0 flags [none] length: 540 10.1.3.1 > 10.1.2.6) ns3::UdpHeader (length: 520 49153 > 9) Payload (size=512)
r 3.00924 /NodeList/0/DeviceList/0/$ns3::PointToPointNetDevice/MacRx ns3::PppHeader (Point-to-Point Protocol: IP (0x0021)) ns3::Ipv4Header (tos 0x0 DSCP Default ECN Not-ECT ttl 63 id 0 protocol 17 offset (bytes) 0 flags [none] length: 540 10.1.3.1 > 10.1.2.6) ns3::UdpHeader (length: 520 49153 > 9) Payload (size=512)
+ 3.01091 /NodeList/0/DeviceList/0/$ns3::PointToPointNetDevice/TxQueue/Enqueue ns3::PppHeader (Point-to-Point Protocol: IP (0x0021)) ns3::Ipv4Header (tos 0x0 DSCP Default ECN Not-ECT ttl 63 id 0 protocol 17 offset (bytes) 0 flags [none] length: 540 10.1.2.6 > 10.1.3.1) ns3::UdpHeader (length: 520 9 > 49153) Payload (size=512)
- 3.01091 /NodeList/0/DeviceList/0/$ns3::PointToPointNetDevice/TxQueue/Dequeue ns3::PppHeader (Point-to-Point Protocol: IP (0x0021)) ns3::Ipv4Header (tos 0x0 DSCP Default ECN Not-ECT ttl 63 id 0 protocol 17 offset (bytes) 0 flags [none] length: 540 10.1.2.6 > 10.1.3.1) ns3::UdpHeader (length: 520 9 > 49153) Payload (size=512)
r 3.01378 /NodeList/1/DeviceList/0/$ns3::PointToPointNetDevice/MacRx ns3::PppHeader (Point-to-Point Protocol: IP (0x0021)) ns3::Ipv4Header (tos 0x0 DSCP Default ECN Not-ECT ttl 63 id 0 protocol 17 offset (bytes) 0 flags [none] length: 540 10.1.2.6 > 10.1.3.1) ns3::UdpHeader (length: 520 9 > 49153) Payload (size=512)
+ 4.01049 /NodeList/1/DeviceList/0/$ns3::PointToPointNetDevice/TxQueue/Enqueue ns3::PppHeader (Point-to-Point Protocol: IP (0x0021)) ns3::Ipv4Header (tos 0x0 DSCP Default ECN Not-ECT ttl 63 id 0 protocol 17 offset (bytes) 0 flags [none] length: 540 10.1.3.2 > 10.1.2.6) ns3::UdpHeader (length: 520 49153 > 9) Payload (size=512)
- 4.01049 /NodeList/1/DeviceList/0/$ns3::PointToPointNetDevice/TxQueue/Dequeue ns3::PppHeader (Point-to-Point Protocol: IP (0x0021)) ns3::Ipv4Header (tos 0x0 DSCP Default ECN Not-ECT ttl 63 id 0 protocol 17 offset (bytes) 0 flags [none] length: 540 10.1.3.2 > 10.1.2.6) ns3::UdpHeader (length: 520 49153 > 9) Payload (size=512)
r 4.01335 /NodeList/0/DeviceList/0/$ns3::PointToPointNetDevice/MacRx ns3::PppHeader (Point-to-Point Protocol: IP (0x0021)) ns3::Ipv4Header (tos 0x0 DSCP Default ECN Not-ECT ttl 63 id 0 protocol 17 offset (bytes) 0 flags [none] length: 540 10.1.3.2 > 10.1.2.6) ns3::UdpHeader (length: 520 49153 > 9) Payload (size=512)
+ 4.01503 /NodeList/0/DeviceList/0/$ns3::PointToPointNetDevice/TxQueue/Enqueue ns3::PppHeader (Point-to-Point Protocol: IP (0x0021)) ns3::Ipv4Header (tos 0x0 DSCP Default ECN Not-ECT ttl 63 id 0 protocol 17 offset (bytes) 0 flags [none] length: 540 10.1.2.6 > 10.1.3.2) ns3::UdpHeader (length: 520 9 > 49153) Payload (size=512)
- 4.01503 /NodeList/0/DeviceList/0/$ns3::PointToPointNetDevice/TxQueue/Dequeue ns3::PppHeader (Point-to-Point Protocol: IP (0x0021)) ns3::Ipv4Header (tos 0x0 DSCP Default ECN Not-ECT ttl 63 id 0 protocol 17 offset (bytes) 0 flags [none] length: 540 10.1.2.6 > 10.1.3.2) ns3::UdpHeader (length: 520 9 > 49153) Payload (size=512)
r 4.0179 /NodeList/1/DeviceList/0/$ns3::PointToPointNetDevice/MacRx ns3::PppHeader (Point-to-Point Protocol: IP (0x0021)) ns3::Ipv4Header (tos 0x0 DSCP Default ECN Not-ECT ttl 63 id 0 protocol 17 offset (bytes) 0 flags [none] length: 540 10.1.2.6 > 10.1.3.2) ns3::UdpHeader (length: 520 9 > 49153) Payload (size=512)
+ 5.00437 /NodeList/1/DeviceList/0/$ns3::PointToPointNetDevice/TxQueue/Enqueue ns3::PppHeader (Point-to-Point Protocol: IP (0x0021)) ns3::Ipv4Header (tos 0x0 DSCP Default ECN Not-ECT ttl 63 id 0 protocol 17 offset (bytes) 0 flags [none] length: 540 10.1.3.3 > 10.1.2.6) ns3::UdpHeader (length: 520 49153 > 9) Payload (size=512)
- 5.00437 /NodeList/1/DeviceList/0/$ns3::PointToPointNetDevice/TxQueue/Dequeue ns3::PppHeader (Point-to-Point Protocol: IP (0x0021)) ns3::Ipv4Header (tos 0x0 DSCP Default ECN Not-ECT ttl 63 id 0 protocol 17 offset (bytes) 0 flags [none] length: 540 10.1.3.3 > 10.1.2.6) ns3::UdpHeader (length: 520 49153 > 9) Payload (size=512)
r 5.00724 /NodeList/0/DeviceList/0/$ns3::PointToPointNetDevice/MacRx ns3::PppHeader (Point-to-Point Protocol: IP (0x0021)) ns3::Ipv4Header (tos 0x0 DSCP Default ECN Not-ECT ttl 63 id 0 protocol 17 offset (bytes) 0 flags [none] length: 540 10.1.3.3 > 10.1.2.6) ns3::UdpHeader (length: 520 49153 > 9) Payload (size=512)
+ 5.00891 /NodeList/0/DeviceList/0/$ns3::PointToPointNetDevice/TxQueue/Enqueue ns3::PppHeader (Point-to-Point Protocol: IP (0x0021)) ns3::Ipv4Header (tos 0x0 DSCP Default ECN Not-ECT ttl 63 id 0 protocol 17 offset (bytes) 0 flags [none] length: 540 10.1.2.6 > 10.1.3.3) ns3::UdpHeader (length: 520 9 > 49153) Payload (size=512)
- 5.00891 /NodeList/0/DeviceList/0/$ns3::PointToPointNetDevice/TxQueue/Dequeue ns3::PppHeader (Point-to-Point Protocol: IP (0x0021)) ns3::Ipv4Header (tos 0x0 DSCP Default ECN Not-ECT ttl 63 id 0 protocol 17 offset (bytes) 0 flags [none] length: 540 10.1.2.6 > 10.1.3.3) ns3::UdpHeader (length: 520 9 > 49153) Payload (size=512)
r 5.01178 /NodeList/1/DeviceList/0/$ns3::PointToPointNetDevice/MacRx ns3::PppHeader (Point-to-Point Protocol: IP (0x0021)) ns3::Ipv4Header (tos 0x0 DSCP Default ECN Not-ECT ttl 63 id 0 protocol 17 offset (bytes) 0 flags [none] length: 540 10.1.2.6 > 10.1.3.3) ns3::UdpHeader (length: 520 9 > 49153) Payload (size=512)
